31
Properties=species:S:1:pos:R:3:forces:R:3 config_type=TS reaction_id=strecker energy=115.27328051587841 pbc="F F F"
C       -1.26164475       0.12804802      -0.07615357       0.00000000       0.00000000       0.00000000
C        0.00293622      -0.15523833       0.65194724       0.00000000       0.00000000       0.00000000
O        0.14977532      -0.40902955       2.03224227       0.00000000       0.00000000       0.00000000
C        1.23296641      -0.20153373      -0.50224126       0.00000000       0.00000000       0.00000000
O        1.00489767       0.26934249      -1.82456098       0.00000000       0.00000000       0.00000000
H       -1.24791995       1.14203007      -0.46709600       0.00000000       0.00000000       0.00000000
H       -2.04213611       0.04112323       0.65592036       0.00000000       0.00000000       0.00000000
H       -1.36858158      -0.58356794      -0.89560621       0.00000000       0.00000000       0.00000000
H        2.46246420      -0.26456671       0.40305925       0.00000000       0.00000000       0.00000000
N        3.97376210      -1.65744409       0.91309981       0.00000000       0.00000000       0.00000000
C        4.15110904      -0.62836261      -0.09510693       0.00000000       0.00000000       0.00000000
C        3.35609626       0.61954847       0.23463017       0.00000000       0.00000000       0.00000000
C        1.98465427       0.68632798      -0.29832306       0.00000000       0.00000000       0.00000000
C        1.13231890      -1.13905977       0.47312101       0.00000000       0.00000000       0.00000000
C        1.01862079       1.81541839      -0.08305918       0.00000000       0.00000000       0.00000000
C        5.58992977      -0.21034388      -0.17491397       0.00000000       0.00000000       0.00000000
O        6.47247583      -0.42572122       0.64329354       0.00000000       0.00000000       0.00000000
O        5.79884243       0.57608097      -1.26697359       0.00000000       0.00000000       0.00000000
H        4.64961257      -2.38723477       0.71271936       0.00000000       0.00000000       0.00000000
H        4.26834018      -1.25060462       1.79523564       0.00000000       0.00000000       0.00000000
H        3.85964245      -0.99488384      -1.09538243       0.00000000       0.00000000       0.00000000
H        3.72566261       1.44336153      -0.36920586       0.00000000       0.00000000       0.00000000
H        3.33263348       0.85409015       1.29247298       0.00000000       0.00000000       0.00000000
H        1.90245076      -0.03834402      -1.62505245       0.00000000       0.00000000       0.00000000
H        1.15098273      -0.69281323       1.73066720       0.00000000       0.00000000       0.00000000
H        1.43476232      -2.04891968       0.18706664       0.00000000       0.00000000       0.00000000
H       -0.14140696      -1.12419426       0.19768456       0.00000000       0.00000000       0.00000000
H        0.02969864       1.57092548      -0.47031366       0.00000000       0.00000000       0.00000000
H        0.93731198       1.98316108       0.99175403       0.00000000       0.00000000       0.00000000
H        1.39535425       2.59294940      -0.69412161       0.00000000       0.00000000       0.00000000
H        6.72534261       0.76369219      -1.10352929       0.00000000       0.00000000       0.00000000
